# EXPORT_MODE=CHECK_POINT
TITLE="FE Surface Data ASCII"
VARIABLES="X", "Y", "Z", "T", "Hw", "Hi", "HTC", "Beta", "MImp2", "Vd2", "TauX", "TauY", "TauZ"
ZONE T="WALL_2000"
NODES=720
ELEMENTS=720
DATAPACKING=BLOCK
ZONETYPE=FETRIANGLE
VARLOCATION=([4-13]=CELLCENTERED)
0.293798 0.293771 0.297038 0.296996 0.300171 0.300121 0.303202 0.303147 0.306134 0.306074 0.308965 0.308902 0.311698 0.31163 0.314331 0.314261 0.316868 0.316795 0.319312 0.319236 0.321665 0.321587 0.323931 0.323851 0.326112 0.32603 0.328212 0.328127 0.330231 0.330145 0.332174 0.332086 0.334042 0.333953 0.335838 0.335747 0.337563 0.337471 0.339219 0.339126 0.340809 0.340716 0.342335 0.342241 0.3438 0.343705 0.345205 0.34511 0.346552 0.346457 0.347842 0.347748 0.349079 0.348984 0.350263 0.350169 0.351396 0.351302 0.352481 0.352388 0.353519 0.353426 0.354512 0.354419 0.35546 0.355368 0.356364 0.356273 0.357228 0.357138 0.35805 0.357961 0.358834 0.358746 0.359579 0.359491 0.360286 0.360199 0.360956 0.360871 0.361591 0.361505 0.362189 0.362105 0.362753 0.362668 0.363281 0.363197 0.363775 0.363692 0.364234 0.364153 0.364654 0.364576 0.365012 0.364942 0.365264 0.365214 0.365389 0.365377 0.365373 0.365419 0.365216 0.365334 0.364933 0.365124 0.364546 0.3648 0.364095 0.364394 0.363604 0.363931 0.363078 0.363421 0.362514 0.362866 0.361909 0.362266 0.361261 0.361621 0.360569 0.36093 0.35983 0.360191 0.359043 0.359405 0.358208 0.358569 0.357321 0.357682 0.356381 0.356743 0.355387 0.355748 0.354336 0.354697 0.353225 0.353586 0.352052 0.352413 0.350815 0.351176 0.349511 0.349872 0.348136 0.348497 0.346686 0.347048 0.34516 0.345521 0.343553 0.343915 0.341862 0.342224 0.340084 0.340445 0.338214 0.338576 0.33625 0.336612 0.334187 0.334549 0.332023 0.332385 0.329752 0.330114 0.327371 0.327733 0.324876 0.325237 0.322262 0.322624 0.319525 0.319887 0.316662 0.317024 0.313667 0.314029 0.310536 0.310898 0.307263 0.307626 0.290447 0.290435 0.286984 0.286978 0.283407 0.283404 0.279719 0.279717 0.275927 0.275926 0.272034 0.272033 0.268034 0.268033 0.263916 0.263916 0.259677 0.259677 0.25532 0.25532 0.250855 0.250855 0.246287 0.246287 0.241618 0.241618 0.236845 0.236845 0.231967 0.231967 0.226983 0.226983 0.221901 0.221901 0.216729 0.216729 0.211478 0.211478 0.206153 0.206153 0.200756 0.200756 0.195296 0.195296 0.189782 0.189782 0.184226 0.184226 0.178641 0.178641 0.17304 0.17304 0.167436 0.167436 0.161838 0.161838 0.15626 0.15626 0.150711 0.150711 0.145195 0.145195 0.139695 0.139695 0.134073 0.134073 0.128321 0.128321 0.122454 0.122454 0.116487 0.116486 0.110434 0.110434 0.104317 0.104317 0.098157 0.098157 0.091972 0.091972 0.085782 0.085782 0.079606 0.079605 0.073464 0.073464 0.067379 0.067379 0.061372 0.061371 0.055459 0.055458 0.049654 0.049653 0.04397 0.043969 0.038391 0.03839 0.032758 0.032757 0.027058 0.027057 0.021308 0.021307 0.015527 0.015525 0.009735 0.009734 0.003956 0.003955 -0.00179 -0.001791 -0.007481 -0.007483 -0.013098 -0.0131 -0.018621 -0.018623 -0.024031 -0.024033 -0.02931 -0.029312 -0.034443 -0.034445 -0.039416 -0.039418 -0.044246 -0.044247 -0.048992 -0.048993 -0.05366200000000007 -0.05366300000000133 -0.0582530000000175 -0.058253000000186676 -0.06274500000171068 -0.06274400001307676 -0.06712000008653544 -0.06711800047996719 -0.07137400230608083 -0.0713700092964282 -0.0754950323413852 -0.07549009461061991 -0.07946223816851765 -0.07945550944669195 -0.08325794819907968 -0.08324954814802295 -0.08687629238401068 -0.08686616309926044 -0.09031622328794651 -0.0903015447173154 -0.09357221696332806 -0.0935541966062058 -0.09664040750489049 -0.09661665199903455 -0.09951479900764436 -0.09948368921432388 -0.10219728764997171 -0.10215857557890184 -0.10469263141637353 -0.1046465269798377 -0.10700337530921562 -0.10695026659868698 -0.10913133116927891 -0.10907164672989762 -0.11108225117056832 -0.11101194061852232 -0.1128502962971809 -0.112761637527302 -0.11441937550975806 -0.11430814787736032 -0.11578632095163353 -0.11565659142072417 -0.116980129992924 -0.11684560495518923 -0.11805951421151172 -0.117935636180452 -0.11906968426897027 -0.11896224529237014 -0.12003007808226948 -0.11993602043831442 -0.1209870045594637 -0.12090400082653595 -0.12193500012196153 -0.1218560000136384 -0.12286100000116815 -0.12278200000027303 -0.12375499999940746 -0.12367299998874212 -0.12461299994537414 -0.12452600008712518 -0.12543200363089022 -0.12534003241255756 -0.1262101943748338 -0.12611287032946283 -0.12694518202326605 -0.1268445134168211 -0.1276432896954887 -0.12755258479221165 -0.12831869876486882 -0.12824637217426335 -0.1289976243360871 -0.12892159286604604 -0.1296382783169567 -0.12952154678006048 -0.13018618013521635 -0.1300148260599918 -0.13063593565150008 -0.13043070609781807 -0.13104114500731232 -0.13083662624320594 -0.13146530904880296 -0.13128467340552985 -0.13193953260875194 -0.13179412823690992 -0.13248892242444885 -0.1323889031819731 -0.13312539258669384 -0.1330720390016811 -0.1338034224723942 -0.13377178436894055 -0.1344316518864313 -0.134313614871013 -0.13472012152555474 -0.134376336777645 -0.13457890969969627 -0.13407779236581163 -0.13424106544388015 -0.13375585928148068 -0.13403956525241575 -0.1336609465794235 -0.1340820978219513 -0.1338317270956275 -0.1343616273954877 -0.13419576175418413 -0.13476595288978008 -0.13463762362391343 -0.13521362414920435 -0.13510339811825786 -0.13568729277887873 -0.135591779915554 -0.13619129592453008 -0.1361228023346463 -0.13674707369036657 -0.13675303208378056 -0.13745367671782135 -0.13755643867151432 -0.1382533634918018 -0.13835692234517954 -0.13899497574105424 -0.13902368064841175 -0.13954990900416578 -0.13949881624452445 -0.13992289668317812 -0.13982483064642304 -0.14018041294473818 -0.1400096124377582 -0.14019190520623678 -0.1398969214984378 -0.13988572167640548 -0.1395163496250008 -0.13940120603072087 -0.13904323966577592 -0.13891739432957823 -0.13860773545983726 -0.13852781869326564 -0.13826117226071646 -0.13818883761747988 -0.13792527681231948 -0.137800644998322 -0.13752097318719836 -0.1373231914838184 -0.1370426567243188 -0.13681052563674484 -0.13655016810608608 -0.13632387502215979 -0.13608937845841362 -0.13587796462022905 -0.13566676831104119 -0.13545877865275632 -0.13526835453180547 -0.1350566875076008 -0.13488898129122137 -0.13467306162648474 -0.1345366275500728 -0.13431099475995922 -0.13421473406173198 -0.13398428008138052 -0.1339385328297534 -0.13372530119908005 -0.13373476040280483 -0.13356758816182965 -0.1336343511228443 -0.13352515728776768 -0.1336525612032257 -0.13358775154496258 -0.1337838924172142 -0.13374996374188802 -0.134019055413655 -0.13400082960906665 -0.13433053781844978 -0.13429761215463404 -0.13466969858252492 -0.13459336117444176 -0.13499040556436956 -0.13485957318562716 -0.13527557180944744 -0.13510014118557692 -0.1355334030979752 -0.13531773420175044 -0.13575384062518991 -0.13545992442151328 -0.13586600507332217 -0.1354363657881636 -0.13578537534378646 -0.13522370352789342 -0.135521602501525 -0.13487892312298624 -0.13516350670902688 -0.13450865168286208 -0.13480757218417896 -0.13415062153773055 -0.13444479794690256 -0.13373925808757262 -0.13397152061655332 -0.1331646030560956 -0.1333137888002011 -0.13242309388477716 -0.13252478544686333 -0.13162950588743202 -0.13175634861834118 -0.13091798661722506 -0.1311231789374313 -0.13038857196200768 -0.13064508733201222 -0.12996991037433286 -0.1302283024765379 -0.12956844569445305 -0.129813035458034 -0.1291553509034032 -0.12938654200157781 -0.12873389425534942 -0.1289479794512988 -0.12828099668306844 -0.1284739995471175 -0.12778399994837528 -0.127962999995057 -0.12726899999960636 -0.1274379999999601 -0.1267389999998693 -0.1268969999990247 -0.1261959999938715 -0.12634299996880546 -0.12564699987262512 -0.12578299962095207 -0.1250959993963435 -0.1252240013742523 -0.1245500155798652 -0.12467107191785251 -0.12401724322729048 -0.12413864147840951 -0.12353342806076968 -0.12366766740636434 -0.12310927331405068 -0.12325382063195332 -0.12271974248245984 -0.12285159069383285 -0.12232040216207941 -0.12241465411315937 -0.12187799526483319 -0.12193182804364905 -0.12137523320283451 -0.1214050197449285 -0.12082597946637069 -0.12084398564571325 -0.12023099442789813 -0.12024399840030475 -0.11958799965446663 -0.11959499993365504 -0.11888599995456375 -0.1188859998034084 -0.11812999919322469 -0.11812099729610531 -0.11731899317536185 -0.11729998781109029 -0.1164509910825541 -0.11641903221518501 -0.11552216908902509 -0.1154804876537227 -0.11453307816864344 -0.11448899528463766 -0.11348216891313967 -0.11343438471573389 -0.11234430808841774 -0.11227864068493541 -0.111082269202016 -0.11099336307112681 -0.10966027817226723 -0.1095523745355487 -0.1080688178487488 -0.10794763411562026 -0.10629974510730865 -0.10616813088974915 -0.10434173468827511 -0.1041994972795108 -0.10218523765850258 -0.10203275685533107 -0.09981787536974025 -0.09965154021891874 -0.09722284020907818 -0.09704396713912371 -0.09439111286049019 -0.09420042050628825 -0.09131692668911703 -0.09111362132901468 -0.08799245283815432 -0.08777838387638102 -0.0844113849753704 -0.0841874445291896 -0.0805695475211881 -0.08033467536432971 -0.07646080017807536 -0.07621589497610509 -0.07208294132789604 -0.07182793310896386 -0.06743187718756649 -0.06716778609513777 -0.0625096736830056 -0.062236551773520506 -0.05731542865728909 -0.057033311756611804 -0.05185220591417226 -0.05156311566764298 -0.04612504251917904 -0.045827986769240166 -0.040138946089851975 -0.039834917612012896 -0.03390089782291769 -0.03358988416773029 -0.027419874941384603 -0.027102869681729085 -0.020705868282503554 -0.020382870564730086 -0.013768875764139321 -0.013441882663911152 -0.006623890012182127 -0.006291896725550808 0.0007180978902585843 0.0010540944410248325 0.008241093340686971 0.008580094972022586 0.015929099353145158 0.016272106197445214 0.02376611480441382 0.0241121243797488 0.031736134221214046 0.03208414400970728 0.03982115369287511 0.04017116318902487 0.04800317200236209 0.04835517922152261 0.056264183969987794 0.0566181859242173 0.06458718544011036 0.0649421831078211 0.07295417917855307 0.07331017339655135 0.08134616536673758 0.081704155057936 0.08974814271475026 0.09010612821002587 0.0981411102164779 0.09850008642058086 0.10650905461170182 0.1068690145109543 0.11483696863510955 0.1151969221951536 0.1231078815633958 0.12346885276088271 0.13130884008434515 0.1316698453104858 0.13942486771733462 0.13978690413832556 0.1474449499389395 0.14780699946128364 0.1553550473637431 0.15571708886032193 0.16314612052223218 0.1635081393845674 0.17080514372673625 0.17116813299714836 0.17832511019614913 0.17868708086437057 0.18569605229758676 0.1860580294534826 0.192911014446534 0.193273006124174 0.1999630024429003 0.20032500162386277 0.20684700333336448 0.2072100087694322 0.21356002045731387 0.21392304034960488 0.22010006844805496 0.22046310070733438 0.22646213165973264 0.22682515573864387 0.23264317016494485 0.2330061730225019 0.23864216337522526 0.23900514068296502 0.24445710849708366 0.24482007312391146 0.2500880427040922 0.2504510211527967 0.2555320089412823 0.2558950031522901 0.2607900009457293 0.26115300023470445 0.26586600004975613 0.2662280000086911 0.27076200000130385 0.2711250000001604 0.275483000000017 0.2758460000000016 0.280031 0.280394 0.284409 0.284772 0.288619 0.288981 0.292664 0.293026 0.296547 0.29691 0.300273 0.300635 0.303844 0.304206 
0.006897 0.006902 0.006346 0.006354 0.005827 0.005835 0.005351 0.005359 0.004912 0.004921 0.004498 0.004507 0.004095 0.004105 0.003692 0.003703 0.003289 0.003301 0.00289 0.002903 0.002502 0.002515 0.002128 0.002141 0.001767 0.001781 0.001421 0.001434 0.001089 0.001103 0.000775 0.000789 0.000479 0.000494 0.000198 0.000213 -7.2e-05 -5.8e-05 -0.000331 -0.000316 -0.00058 -0.000564 -0.000816 -0.000801 -0.001037 -0.001023 -0.001246 -0.001232 -0.001447 -0.001433 -0.001639 -0.001625 -0.001823 -0.001809 -0.002 -0.001986 -0.002167 -0.002153 -0.002325 -0.002312 -0.002473 -0.00246 -0.002612 -0.002599 -0.002746 -0.002734 -0.002874 -0.002862 -0.002995 -0.002982 -0.003112 -0.003099 -0.003222 -0.00321 -0.003326 -0.003315 -0.003426 -0.003414 -0.003517 -0.003506 -0.003602 -0.003591 -0.003683 -0.003671 -0.003759 -0.003747 -0.003831 -0.003817 -0.003901 -0.003882 -0.003976 -0.003947 -0.004081 -0.004036 -0.004268 -0.004197 -0.004553 -0.004449 -0.004912 -0.004772 -0.005294 -0.005127 -0.005648 -0.005473 -0.005931 -0.005768 -0.00612 -0.005987 -0.006227 -0.006127 -0.006299 -0.006224 -0.006372 -0.006311 -0.006452 -0.006398 -0.006536 -0.006485 -0.006623 -0.006574 -0.006713 -0.006666 -0.006808 -0.006761 -0.006908 -0.006861 -0.007013 -0.006967 -0.007125 -0.007079 -0.007245 -0.007198 -0.007371 -0.007324 -0.007505 -0.007458 -0.007645 -0.007599 -0.007796 -0.007749 -0.007953 -0.007907 -0.008119 -0.008074 -0.008289 -0.008245 -0.008464 -0.008421 -0.008642 -0.0086 -0.008824 -0.008784 -0.009009 -0.00897 -0.009196 -0.009158 -0.009388 -0.009352 -0.009585 -0.00955 -0.00979 -0.009755 -0.010004 -0.009968 -0.010228 -0.010192 -0.010463 -0.010428 -0.01071 -0.010674 -0.010969 -0.010933 -0.011241 -0.011206 -0.011526 -0.011491 -0.011823 -0.011789 -0.012128 -0.012095 -0.012426 -0.012394 0.007451 0.007453 0.007977 0.007978 0.008483 0.008483 0.00901 0.00901 0.009609 0.009608 0.010296 0.010296 0.011038 0.011037 0.011775 0.011774 0.012477 0.012476 0.013162 0.013162 0.013882 0.013882 0.014661 0.014661 0.015491 0.015491 0.016342 0.016342 0.017186 0.017186 0.018005 0.018005 0.0188 0.0188 0.019605 0.019605 0.020444 0.020444 0.021306 0.021306 0.022161 0.022161 0.023001 0.023001 0.023833 0.023833 0.024664 0.024664 0.025503 0.025503 0.026354 0.026354 0.027219 0.027219 0.028082 0.028082 0.02893 0.02893 0.029747 0.029747 0.03048 0.03048 0.03108 0.03108 0.03159 0.03159 0.032074 0.032074 0.032554 0.032554 0.033005 0.033005 0.03341 0.03341 0.033791 0.033791 0.034168 0.034168 0.034538 0.034538 0.034865 0.034865 0.035116 0.035116 0.035305 0.035305 0.035495 0.035495 0.035733 0.035733 0.03599 0.03599 0.036205 0.036205 0.036325 0.036325 0.03632 0.03632 0.036205 0.036205 0.036032 0.036032 0.035852 0.035852 0.035674 0.035674 0.035482 0.035482 0.035265 0.035264 0.035018 0.035017 0.034738 0.034737 0.034416 0.034416 0.034046 0.034046 0.033618 0.033618 0.033128 0.033128 0.032576 0.032576 0.031941 0.031941 0.031202 0.031202 0.030374 0.030373 0.02952900000000052 0.0295280000000076 0.028712000000096452 0.02871100000101156 0.027893000009120046 0.02789300006857728 0.0270420004459347 0.02704300242637537 0.026203011409511204 0.026206044894498518 0.02538715199403011 0.025393431555211895 0.024540051964976498 0.02455217582602656 0.023638913186044483 0.023658175373570376 0.022705844946537334 0.022733820855878398 0.02176730899351939 0.021803527448057105 0.020837731280228988 0.020882712582011832 0.019915179137463334 0.019965489920930567 0.01900226485892572 0.019056068953039237 0.01810885361247814 0.01816860620514767 0.017252561363494158 0.01732290677268826 0.016439895533711706 0.016524714295764138 0.01567160800918988 0.01577171657540846 0.014950047931883604 0.015056145924291182 0.014247178146527931 0.014345029616787856 0.013520973686373098 0.013600781566964058 0.012762450613886414 0.012832172242751143 0.012018824109740037 0.012104239564288207 0.011371159482286326 0.01149617848652344 0.010882957363943324 0.011058801644735081 0.010566297350089855 0.010793093513717114 0.010377025968270226 0.010652006151810623 0.0102780012769205 0.010593000224993203 0.01026400003702365 0.010608000026932528 0.010307000181530163 0.010668001238973247 0.010358007559937672 0.010726039466675667 0.010397183874649529 0.010761734898438334 0.010386613238281382 0.010750985970428293 0.01036358059436365 0.010733245091479075 0.010329486511005391 0.01071453453782214 0.010283345370499913 0.010662752515194378 0.010178917284742475 0.010494545618881324 0.009924972146706717 0.010157311436526026 0.009517018538271282 0.00970367100592452 0.009037190431755255 0.009224593727384465 0.008568795151042473 0.00879012921694146 0.008168181693139358 0.008442080282663104 0.007856480460991536 0.00820047889415973 0.007662256803096068 0.008068049689036924 0.007532979920108136 0.007938737493652766 0.007311039525875477 0.007645436855188815 0.006896838391949187 0.007134715054376281 0.006291504778616928 0.006497104113244779 0.0056901807479380504 0.005952338049013189 0.005209044975881311 0.005498726025919471 0.004788554501425474 0.0050796375516283755 0.00442554552720612 0.004755284067090897 0.0041912915933683195 0.004584620040665325 0.00409729878604825 0.004542307891666226 0.004117114999324932 0.004598388695900264 0.00414685610787543 0.0046709446418969 0.004247369749973148 0.004847804886803458 0.004408895385210612 0.005071766623693493 0.004632064040823471 0.005249075697554723 0.004584055125497385 0.004981983962342378 0.004079106852805263 0.004315297673998208 0.0032703823406369298 0.003446553419467817 0.0023365371507199774 0.0024996834879449097 0.0013565600127824146 0.001524156952662619 0.00036751531168753885 0.0005742619400355532 -0.0005356832441967025 -0.000260770744712401 -0.0013060195055050001 -0.000980041370580633 -0.001996062884978253 -0.0016545247864110304 -0.0026769534981025034 -0.0023316733781045414 -0.0033544072830140477 -0.0030012230419988422 -0.004000905366341964 -0.0036295831319357536 -0.004582121819279929 -0.004196797894436674 -0.0051094356029721105 -0.004723302101753472 -0.005618782157789262 -0.0052430044644379515 -0.00612565091940108 -0.005761010859132769 -0.006620689700312634 -0.006266181240165189 -0.0070920195016437515 -0.006750302403501847 -0.007531483402500883 -0.007202850672894655 -0.007932205415544201 -0.007625380051373375 -0.00830111661813901 -0.008024245105535554 -0.008658375296407662 -0.008414099888574838 -0.009018779392026114 -0.008807680563912122 -0.009379033577295278 -0.009192930754036122 -0.009755117806077173 -0.009584852025114034 -0.010143580474995651 -0.009974748925328573 -0.010542876118305074 -0.010368279040708514 -0.010977353360697344 -0.010803933129183943 -0.011475794713387104 -0.011312652634312347 -0.012042663446001097 -0.01188996697061268 -0.012668219103642644 -0.012528256203452623 -0.013348055560444737 -0.013227782826316072 -0.014084166174603509 -0.013983591474425981 -0.014847083071875315 -0.014748956406415747 -0.015582274508238618 -0.015472465187083912 -0.016266407902130634 -0.01615055016134512 -0.016933740912663926 -0.01683544267808184 -0.017624694219405018 -0.017550040068587066 -0.018326582874369463 -0.018237767646542155 -0.018937576777511678 -0.01878583641140177 -0.019352353198570656 -0.019083084719953295 -0.019475132838781762 -0.019041892595746027 -0.019215651482828285 -0.018695065602215833 -0.018822649272163677 -0.01832621185417511 -0.018450199533470435 -0.017997926265345736 -0.018123838264635185 -0.017693320321310005 -0.0178109033599752 -0.01739077681070749 -0.01748217751482899 -0.01707803499498636 -0.017170005851285704 -0.01679100084102706 -0.01690900010220087 -0.016550000010538305 -0.01666400000091242 -0.016321000000101747 -0.016444000000374156 -0.016125000003202675 -0.01626000002386305 -0.01597300015094265 -0.016113000830383948 -0.015864003901656376 -0.01600401603411401 -0.015803056247714393 -0.015947174162987455 -0.015809462478069473 -0.01596709495170857 -0.015906245841056668 -0.01614015228225016 -0.016155811352336204 -0.016409132200371455 -0.01646954415179992 -0.01671331993638251 -0.01676852208997839 -0.016983631259656008 -0.01698374841412341 -0.01714280733635165 -0.017057962832957917 -0.017156092109586834 -0.016989357260885275 -0.017080507175263656 -0.016858160795584675 -0.016944042993173355 -0.016693009926058912 -0.016776001906816322 -0.016518000351419645 -0.016622000246679657 -0.01637000115366533 -0.016472005407418378 -0.016240022362176604 -0.016333077674134448 -0.01614323598101264 -0.01623761351865356 -0.01611440761724789 -0.016246839065053115 -0.01621218533198482 -0.016403609556687775 -0.016451290655673242 -0.016684027726005888 -0.016770452127137705 -0.01700049623357158 -0.017063995826078496 -0.017243775129586157 -0.01724260521075289 -0.017358280694850195 -0.017299805530127343 -0.017374332581405198 -0.017301766814511007 -0.017379595806043216 -0.017333785730981405 -0.01744767940986364 -0.017439597675588392 -0.017594727706443526 -0.017605126060578923 -0.017780033497797845 -0.017775119534288106 -0.01793388100795541 -0.017896095085629515 -0.01801369145735894 -0.01794898641175207 -0.018023304242004812 -0.01795386875617822 -0.01799982361781316 -0.017947103478381545 -0.017986939964157126 -0.017962534767775106 -0.018014783907290933 -0.01801480566906892 -0.018086718598171677 -0.018096106029136295 -0.018177801185861556 -0.018184031586830143 -0.018262155599022785 -0.01825861695880379 -0.01833070155312556 -0.01831862366175346 -0.018380381304627873 -0.01836102613366421 -0.018407531542907123 -0.018384042096971233 -0.0184076616490194 -0.018382624139045723 -0.018382061955504903 -0.018362151198939417 -0.018340938005840076 -0.0183284319619534 -0.018296501343745695 -0.018289957684808834 -0.01826256622501047 -0.01825915695545161 -0.018233654721209906 -0.018232103541329585 -0.01820658661672426 -0.018205166860687714 -0.01818581284715195 -0.018185417490160585 -0.01817382448503606 -0.01817189941324588 -0.018163560469346925 -0.018157803676403645 -0.018143683781520425 -0.01813531389317128 -0.018111829234875067 -0.0181003869868643 -0.01806409706380548 -0.018052004968897816 -0.018005056639718704 -0.017993161320746395 -0.017938248422452594 -0.01792733135133676 -0.01785448673954951 -0.01784380720282259 -0.017761340692860512 -0.01775409031455383 -0.017671054121580484 -0.01766728546637678 -0.01758691326081325 -0.01758910118147096 -0.017521965849913775 -0.01753148993500714 -0.017495502748996257 -0.01751070255581117 -0.017510756179307994 -0.01752635727199088 -0.017558293686174217 -0.017569433520940134 -0.01761872512639757 -0.017621166459059454 -0.017674803829354123 -0.017669711830938323 -0.017712010077577712 -0.01769783340443804 -0.01772036139855631 -0.017700740524494312 -0.01769510760545771 -0.01767150637990257 -0.017628998930113136 -0.017604656044239875 -0.017517666708161087 -0.01749520361292759 -0.017358399140108904 -0.017340222151376976 -0.017153555176583696 -0.017137223079820844 -0.01691608633411811 -0.016903056985459783 -0.016672118930988588 -0.016663325383702233 -0.016456806327452028 -0.016452719666715198 -0.016300192802829603 -0.01630215453985197 -0.016213312666531657 -0.016216132459819548 -0.016163086653598818 -0.016159851194002716 -0.016105508285028745 -0.01609446726435218 -0.01601531430283542 -0.01599950253242319 -0.01586926441090097 -0.015851548769821543 -0.01564320663576475 -0.015623066113418606 -0.01534401834905499 -0.015322004291416983 -0.015014000872412097 -0.014992000148384905 -0.014693000021959638 -0.014671000002692608 -0.014404000000286417 -0.014382000000024873 -0.014143000000001854 -0.014121000000000104 -0.013902 -0.013881 -0.013672 -0.01365 -0.013443 -0.013421 -0.01321 -0.013185 -0.012966 -0.012939 -0.012706 -0.012677 