# EXPORT_MODE=CHECK_POINT
TITLE="FE Surface Data ASCII"
VARIABLES="X", "Y", "Z", "T", "Hw", "Hi", "HTC", "Beta", "TauX", "TauY", "TauZ"
ZONE T="ZONE 1"
NODES=396
ELEMENTS=394
DATAPACKING=BLOCK
ZONETYPE=FETRIANGLE
VARLOCATION=([4-11]=CELLCENTERED)
3.527069999999999927e-01 3.525860000000000105e-01 3.524519999999999875e-01 3.523020000000000040e-01 3.521299999999999986e-01 3.519280000000000186e-01 3.516889999999999739e-01 3.514010000000000189e-01 3.510510000000000019e-01 3.506219999999999892e-01 3.500909999999999855e-01 3.494329999999999936e-01 3.486150000000000082e-01 3.475949999999999873e-01 3.463249999999999940e-01 3.447470000000000256e-01 3.427950000000000164e-01 3.403900000000000259e-01 3.374480000000000257e-01 3.338740000000000041e-01 3.295730000000000048e-01 3.244460000000000122e-01 3.183989999999999876e-01 3.113520000000000176e-01 3.032389999999999808e-01 2.940220000000000056e-01 2.836940000000000017e-01 2.722829999999999973e-01 2.598619999999999819e-01 2.465430000000000121e-01 2.324759999999999882e-01 2.178499999999999881e-01 2.028739999999999988e-01 1.877769999999999995e-01 1.727910000000000001e-01 1.581400000000000028e-01 1.440299999999999914e-01 1.306390000000000051e-01 1.181100000000000066e-01 1.065480000000000038e-01 9.601759999999999462e-02 8.654570000000000318e-02 7.812449999999999950e-02 7.071760000000000546e-02 6.426510000000000555e-02 5.869259999999999755e-02 5.391510000000000052e-02 4.984260000000000079e-02 4.638860000000000205e-02 4.346620000000000344e-02 4.099810000000000260e-02 3.891320000000000195e-02 3.714699999999999946e-02 3.564729999999999982e-02 3.436510000000000259e-02 3.326019999999999671e-02 3.230029999999999707e-02 3.145440000000000041e-02 3.069809999999999900e-02 3.001240000000000158e-02 2.932749999999999940e-02 2.857420000000000099e-02 2.775839999999999905e-02 2.688149999999999915e-02 2.595269999999999869e-02 2.497469999999999898e-02 2.395649999999999863e-02 2.290529999999999997e-02 2.183010000000000159e-02 2.073739999999999958e-02 1.963449999999999918e-02 1.852830000000000102e-02 1.742459999999999842e-02 1.633180000000000048e-02 1.525370000000000024e-02 1.419510000000000043e-02 1.315990000000000042e-02 1.215139999999999970e-02 1.117250000000000014e-02 1.022520000000000026e-02 9.311510000000000273e-03 8.432689999999999630e-03 7.589910000000000059e-03 6.784069999999999684e-03 6.015780000000000086e-03 5.286009999999999841e-03 4.595420000000000234e-03 3.944669999999999947e-03 3.335760000000000114e-03 2.768919999999999802e-03 2.246670000000000091e-03 1.771950000000000001e-03 1.346339999999999907e-03 9.735600000000000503e-04 6.567219999999999915e-04 3.998070000000000161e-04 2.047340000000000086e-04 7.354339999999999792e-05 8.182199999999999350e-06 8.137200000000000628e-06 7.337800000000000117e-05 2.044509999999999980e-04 3.994170000000000012e-04 6.562220000000000336e-04 9.729580000000000043e-04 1.345660000000000042e-03 1.771189999999999961e-03 2.245819999999999934e-03 2.768010000000000002e-03 3.334810000000000118e-03 3.943689999999999696e-03 4.594410000000000160e-03 5.284979999999999886e-03 6.014700000000000428e-03 6.782980000000000086e-03 7.588789999999999772e-03 8.431549999999999462e-03 9.310340000000000282e-03 1.022409999999999985e-02 1.117130000000000033e-02 1.215019999999999989e-02 1.315870000000000060e-02 1.419379999999999947e-02 1.525250000000000043e-02 1.633050000000000126e-02 1.742339999999999861e-02 1.852699999999999833e-02 1.963319999999999996e-02 2.073610000000000037e-02 2.182879999999999890e-02 2.290400000000000075e-02 2.395519999999999941e-02 2.497339999999999977e-02 2.595139999999999947e-02 2.688019999999999993e-02 2.775719999999999923e-02 2.857300000000000118e-02 2.932629999999999959e-02 3.001119999999999829e-02 3.069679999999999978e-02 3.145320000000000060e-02 3.229900000000000132e-02 3.325890000000000096e-02 3.436379999999999990e-02 3.564599999999999713e-02 3.714569999999999678e-02 3.891180000000000333e-02 4.099660000000000110e-02 4.346470000000000194e-02 4.638699999999999768e-02 4.984100000000000336e-02 5.391350000000000309e-02 5.869089999999999724e-02 6.426339999999999830e-02 7.071579999999999533e-02 7.812270000000000325e-02 8.654380000000000406e-02 9.601579999999999837e-02 1.065460000000000018e-01 1.181080000000000046e-01 1.306370000000000031e-01 1.440289999999999904e-01 1.581390000000000018e-01 1.727899999999999991e-01 1.877759999999999985e-01 2.028729999999999978e-01 2.178489999999999871e-01 2.324759999999999882e-01 2.465420000000000111e-01 2.598619999999999819e-01 2.722829999999999973e-01 2.836929999999999730e-01 2.940220000000000056e-01 3.032389999999999808e-01 3.113520000000000176e-01 3.184000000000000163e-01 3.244460000000000122e-01 3.295730000000000048e-01 3.338749999999999774e-01 3.374480000000000257e-01 3.403900000000000259e-01 3.427950000000000164e-01 3.447470000000000256e-01 3.463249999999999940e-01 3.475949999999999873e-01 3.486150000000000082e-01 3.494329999999999936e-01 3.500909999999999855e-01 3.506219999999999892e-01 3.510510000000000019e-01 3.514010000000000189e-01 3.516889999999999739e-01 3.519280000000000186e-01 3.521299999999999986e-01 3.523020000000000040e-01 3.524519999999999875e-01 3.525860000000000105e-01 3.527069999999999927e-01 3.527069999999999927e-01 3.525860000000000105e-01 3.524519999999999875e-01 3.523020000000000040e-01 3.521299999999999986e-01 3.519280000000000186e-01 3.516889999999999739e-01 3.514010000000000189e-01 3.510510000000000019e-01 3.506219999999999892e-01 3.500909999999999855e-01 3.494329999999999936e-01 3.486150000000000082e-01 3.475949999999999873e-01 3.463249999999999940e-01 3.447470000000000256e-01 3.427950000000000164e-01 3.403900000000000259e-01 3.374480000000000257e-01 3.338740000000000041e-01 3.295730000000000048e-01 3.244460000000000122e-01 3.183989999999999876e-01 3.113520000000000176e-01 3.032389999999999808e-01 2.940220000000000056e-01 2.836940000000000017e-01 2.722829999999999973e-01 2.598619999999999819e-01 2.465430000000000121e-01 2.324759999999999882e-01 2.178499999999999881e-01 2.028739999999999988e-01 1.877769999999999995e-01 1.727910000000000001e-01 1.581400000000000028e-01 1.440299999999999914e-01 1.306390000000000051e-01 1.181100000000000066e-01 1.065480000000000038e-01 9.601759999999999462e-02 8.654570000000000318e-02 7.812449999999999950e-02 7.071760000000000546e-02 6.426510000000000555e-02 5.869259999999999755e-02 5.391510000000000052e-02 4.984260000000000079e-02 4.638860000000000205e-02 4.346620000000000344e-02 4.099810000000000260e-02 3.891320000000000195e-02 3.714699999999999946e-02 3.564729999999999982e-02 3.436510000000000259e-02 3.326019999999999671e-02 3.230029999999999707e-02 3.145440000000000041e-02 3.069809999999999900e-02 3.001240000000000158e-02 2.932749999999999940e-02 2.857420000000000099e-02 2.775839999999999905e-02 2.688149999999999915e-02 2.595269999999999869e-02 2.497469999999999898e-02 2.395649999999999863e-02 2.290529999999999997e-02 2.183010000000000159e-02 2.073739999999999958e-02 1.963449999999999918e-02 1.852830000000000102e-02 1.742459999999999842e-02 1.633180000000000048e-02 1.525370000000000024e-02 1.419510000000000043e-02 1.315990000000000042e-02 1.215139999999999970e-02 1.117250000000000014e-02 1.022520000000000026e-02 9.311510000000000273e-03 8.432689999999999630e-03 7.589910000000000059e-03 6.784069999999999684e-03 6.015780000000000086e-03 5.286009999999999841e-03 4.595420000000000234e-03 3.944669999999999947e-03 3.335760000000000114e-03 2.768919999999999802e-03 2.246670000000000091e-03 1.771950000000000001e-03 1.346339999999999907e-03 9.735600000000000503e-04 6.567219999999999915e-04 3.998070000000000161e-04 2.047340000000000086e-04 7.354339999999999792e-05 8.182199999999999350e-06 8.137200000000000628e-06 7.337800000000000117e-05 2.044509999999999980e-04 3.994170000000000012e-04 6.562220000000000336e-04 9.729580000000000043e-04 1.345660000000000042e-03 1.771189999999999961e-03 2.245819999999999934e-03 2.768010000000000002e-03 3.334810000000000118e-03 3.943689999999999696e-03 4.594410000000000160e-03 5.284979999999999886e-03 6.014700000000000428e-03 6.782980000000000086e-03 7.588789999999999772e-03 8.431549999999999462e-03 9.310340000000000282e-03 1.022409999999999985e-02 1.117130000000000033e-02 1.215019999999999989e-02 1.315870000000000060e-02 1.419379999999999947e-02 1.525250000000000043e-02 1.633050000000000126e-02 1.742339999999999861e-02 1.852699999999999833e-02 1.963319999999999996e-02 2.073610000000000037e-02 2.182879999999999890e-02 2.290400000000000075e-02 2.395519999999999941e-02 2.497339999999999977e-02 2.595139999999999947e-02 2.688019999999999993e-02 2.775719999999999923e-02 2.857300000000000118e-02 2.932629999999999959e-02 3.001119999999999829e-02 3.069679999999999978e-02 3.145320000000000060e-02 3.229900000000000132e-02 3.325890000000000096e-02 3.436379999999999990e-02 3.564599999999999713e-02 3.714569999999999678e-02 3.891180000000000333e-02 4.099660000000000110e-02 4.346470000000000194e-02 4.638699999999999768e-02 4.984100000000000336e-02 5.391350000000000309e-02 5.869089999999999724e-02 6.426339999999999830e-02 7.071579999999999533e-02 7.812270000000000325e-02 8.654380000000000406e-02 9.601579999999999837e-02 1.065460000000000018e-01 1.181080000000000046e-01 1.306370000000000031e-01 1.440289999999999904e-01 1.581390000000000018e-01 1.727899999999999991e-01 1.877759999999999985e-01 2.028729999999999978e-01 2.178489999999999871e-01 2.324759999999999882e-01 2.465420000000000111e-01 2.598619999999999819e-01 2.722829999999999973e-01 2.836929999999999730e-01 2.940220000000000056e-01 3.032389999999999808e-01 3.113520000000000176e-01 3.184000000000000163e-01 3.244460000000000122e-01 3.295730000000000048e-01 3.338749999999999774e-01 3.374480000000000257e-01 3.403900000000000259e-01 3.427950000000000164e-01 3.447470000000000256e-01 3.463249999999999940e-01 3.475949999999999873e-01 3.486150000000000082e-01 3.494329999999999936e-01 3.500909999999999855e-01 3.506219999999999892e-01 3.510510000000000019e-01 3.514010000000000189e-01 3.516889999999999739e-01 3.519280000000000186e-01 3.521299999999999986e-01 3.523020000000000040e-01 3.524519999999999875e-01 3.525860000000000105e-01 3.527069999999999927e-01 
-6.299079999999999328e-05 -8.460349999999999728e-05 -1.083759999999999937e-04 -1.351140000000000077e-04 -1.657990000000000028e-04 -2.016700000000000122e-04 -2.442039999999999814e-04 -2.953119999999999942e-04 -3.574259999999999894e-04 -4.334660000000000271e-04 -5.272669999999999918e-04 -6.433759999999999740e-04 -7.874829999999999547e-04 -9.665029999999999585e-04 -1.188500000000000103e-03 -1.462839999999999974e-03 -1.800450000000000097e-03 -2.213099999999999963e-03 -2.713370000000000105e-03 -3.314510000000000112e-03 -4.028379999999999808e-03 -4.866399999999999892e-03 -5.836159999999999959e-03 -6.942519999999999768e-03 -8.184910000000000102e-03 -9.556270000000000389e-03 -1.104450000000000050e-02 -1.262800000000000034e-02 -1.428160000000000020e-02 -1.597080000000000027e-02 -1.765680000000000027e-02 -1.929880000000000137e-02 -2.085089999999999860e-02 -2.227000000000000160e-02 -2.351900000000000171e-02 -2.456329999999999972e-02 -2.538090000000000138e-02 -2.596189999999999956e-02 -2.630920000000000133e-02 -2.643409999999999857e-02 -2.636329999999999923e-02 -2.612729999999999914e-02 -2.576370000000000049e-02 -2.530229999999999979e-02 -2.478870000000000032e-02 -2.424259999999999957e-02 -2.369169999999999957e-02 -2.316290000000000016e-02 -2.265469999999999984e-02 -2.218909999999999980e-02 -2.176319999999999991e-02 -2.137690000000000076e-02 -2.103810000000000055e-02 -2.072950000000000140e-02 -2.045699999999999949e-02 -2.021579999999999905e-02 -1.999379999999999907e-02 -1.979619999999999991e-02 -1.961939999999999865e-02 -1.945080000000000073e-02 -1.927939999999999862e-02 -1.909069999999999864e-02 -1.887430000000000010e-02 -1.864180000000000004e-02 -1.837969999999999882e-02 -1.810250000000000054e-02 -1.780349999999999988e-02 -1.748440000000000064e-02 -1.714210000000000039e-02 -1.678119999999999959e-02 -1.640269999999999923e-02 -1.600779999999999911e-02 -1.559939999999999938e-02 -1.517220000000000027e-02 -1.473080000000000049e-02 -1.427579999999999995e-02 -1.380810000000000023e-02 -1.332870000000000062e-02 -1.283779999999999991e-02 -1.233599999999999974e-02 -1.182360000000000008e-02 -1.130070000000000033e-02 -1.076700000000000053e-02 -1.022250000000000068e-02 -9.666839999999999461e-03 -9.099190000000000056e-03 -8.519020000000000412e-03 -7.925750000000000503e-03 -7.317579999999999744e-03 -6.694799999999999883e-03 -6.055819999999999953e-03 -5.399469999999999964e-03 -4.726189999999999905e-03 -4.035580000000000417e-03 -3.328470000000000040e-03 -2.606100000000000083e-03 -1.871239999999999926e-03 -1.126940000000000103e-03 -3.767479999999999917e-04 3.753760000000000191e-04 1.125609999999999979e-03 1.869940000000000057e-03 2.604840000000000193e-03 3.327220000000000091e-03 4.034359999999999856e-03 4.725000000000000033e-03 5.398339999999999736e-03 6.054730000000000355e-03 6.693750000000000047e-03 7.316590000000000420e-03 7.924820000000000822e-03 8.518140000000000434e-03 9.098359999999999781e-03 9.666050000000000683e-03 1.022170000000000023e-02 1.076629999999999948e-02 1.129999999999999928e-02 1.182300000000000018e-02 1.233539999999999984e-02 1.283720000000000000e-02 1.332810000000000071e-02 1.380759999999999973e-02 1.427529999999999945e-02 1.473029999999999999e-02 1.517169999999999977e-02 1.559890000000000061e-02 1.600740000000000149e-02 1.640230000000000160e-02 1.678069999999999909e-02 1.714169999999999930e-02 1.748399999999999954e-02 1.780320000000000166e-02 1.810209999999999944e-02 1.837940000000000060e-02 1.864149999999999835e-02 1.887399999999999842e-02 1.909040000000000042e-02 1.927910000000000040e-02 1.945049999999999904e-02 1.961919999999999983e-02 1.979590000000000169e-02 1.999350000000000085e-02 2.021550000000000083e-02 2.045670000000000127e-02 2.072919999999999971e-02 2.103789999999999827e-02 2.137659999999999907e-02 2.176290000000000169e-02 2.218890000000000098e-02 2.265450000000000103e-02 2.316270000000000134e-02 2.369150000000000075e-02 2.424240000000000075e-02 2.478850000000000151e-02 2.530220000000000038e-02 2.576360000000000108e-02 2.612719999999999973e-02 2.636329999999999923e-02 2.643409999999999857e-02 2.630920000000000133e-02 2.596189999999999956e-02 2.538100000000000078e-02 2.456339999999999912e-02 2.351910000000000112e-02 2.227010000000000101e-02 2.085110000000000088e-02 1.929890000000000078e-02 1.765689999999999968e-02 1.597080000000000027e-02 1.428169999999999960e-02 1.262800000000000034e-02 1.104450000000000050e-02 9.556280000000000330e-03 8.184920000000000043e-03 6.942509999999999827e-03 5.836150000000000018e-03 4.866389999999999952e-03 4.028359999999999927e-03 3.314489999999999797e-03 2.713349999999999790e-03 2.213070000000000141e-03 1.800429999999999999e-03 1.462820000000000092e-03 1.188489999999999946e-03 9.664889999999999549e-04 7.874709999999999826e-04 6.433660000000000333e-04 5.272579999999999585e-04 4.334580000000000095e-04 3.574210000000000191e-04 2.953070000000000239e-04 2.442009999999999884e-04 2.016680000000000078e-04 1.657969999999999984e-04 1.351129999999999920e-04 1.083769999999999959e-04 8.460360000000000428e-05 6.299069999999999984e-05 -6.299079999999999328e-05 -8.460349999999999728e-05 -1.083759999999999937e-04 -1.351140000000000077e-04 -1.657990000000000028e-04 -2.016700000000000122e-04 -2.442039999999999814e-04 -2.953119999999999942e-04 -3.574259999999999894e-04 -4.334660000000000271e-04 -5.272669999999999918e-04 -6.433759999999999740e-04 -7.874829999999999547e-04 -9.665029999999999585e-04 -1.188500000000000103e-03 -1.462839999999999974e-03 -1.800450000000000097e-03 -2.213099999999999963e-03 -2.713370000000000105e-03 -3.314510000000000112e-03 -4.028379999999999808e-03 -4.866399999999999892e-03 -5.836159999999999959e-03 -6.942519999999999768e-03 -8.184910000000000102e-03 -9.556270000000000389e-03 -1.104450000000000050e-02 -1.262800000000000034e-02 -1.428160000000000020e-02 -1.597080000000000027e-02 -1.765680000000000027e-02 -1.929880000000000137e-02 -2.085089999999999860e-02 -2.227000000000000160e-02 -2.351900000000000171e-02 -2.456329999999999972e-02 -2.538090000000000138e-02 -2.596189999999999956e-02 -2.630920000000000133e-02 -2.643409999999999857e-02 -2.636329999999999923e-02 -2.612729999999999914e-02 -2.576370000000000049e-02 -2.530229999999999979e-02 -2.478870000000000032e-02 -2.424259999999999957e-02 -2.369169999999999957e-02 -2.316290000000000016e-02 -2.265469999999999984e-02 -2.218909999999999980e-02 -2.176319999999999991e-02 -2.137690000000000076e-02 -2.103810000000000055e-02 -2.072950000000000140e-02 -2.045699999999999949e-02 -2.021579999999999905e-02 -1.999379999999999907e-02 -1.979619999999999991e-02 -1.961939999999999865e-02 -1.945080000000000073e-02 -1.927939999999999862e-02 -1.909069999999999864e-02 -1.887430000000000010e-02 -1.864180000000000004e-02 -1.837969999999999882e-02 -1.810250000000000054e-02 -1.780349999999999988e-02 -1.748440000000000064e-02 -1.714210000000000039e-02 -1.678119999999999959e-02 -1.640269999999999923e-02 -1.600779999999999911e-02 -1.559939999999999938e-02 -1.517220000000000027e-02 -1.473080000000000049e-02 -1.427579999999999995e-02 -1.380810000000000023e-02 -1.332870000000000062e-02 -1.283779999999999991e-02 -1.233599999999999974e-02 -1.182360000000000008e-02 -1.130070000000000033e-02 -1.076700000000000053e-02 -1.022250000000000068e-02 -9.666839999999999461e-03 -9.099190000000000056e-03 -8.519020000000000412e-03 -7.925750000000000503e-03 -7.317579999999999744e-03 -6.694799999999999883e-03 -6.055819999999999953e-03 -5.399469999999999964e-03 -4.726189999999999905e-03 -4.035580000000000417e-03 -3.328470000000000040e-03 -2.606100000000000083e-03 -1.871239999999999926e-03 -1.126940000000000103e-03 -3.767479999999999917e-04 3.753760000000000191e-04 1.125609999999999979e-03 1.869940000000000057e-03 2.604840000000000193e-03 3.327220000000000091e-03 4.034359999999999856e-03 4.725000000000000033e-03 5.398339999999999736e-03 6.054730000000000355e-03 6.693750000000000047e-03 7.316590000000000420e-03 7.924820000000000822e-03 8.518140000000000434e-03 9.098359999999999781e-03 9.666050000000000683e-03 1.022170000000000023e-02 1.076629999999999948e-02 1.129999999999999928e-02 1.182300000000000018e-02 1.233539999999999984e-02 1.283720000000000000e-02 1.332810000000000071e-02 1.380759999999999973e-02 1.427529999999999945e-02 1.473029999999999999e-02 1.517169999999999977e-02 1.559890000000000061e-02 1.600740000000000149e-02 1.640230000000000160e-02 1.678069999999999909e-02 1.714169999999999930e-02 1.748399999999999954e-02 1.780320000000000166e-02 1.810209999999999944e-02 1.837940000000000060e-02 1.864149999999999835e-02 1.887399999999999842e-02 1.909040000000000042e-02 1.927910000000000040e-02 1.945049999999999904e-02 1.961919999999999983e-02 1.979590000000000169e-02 1.999350000000000085e-02 2.021550000000000083e-02 2.045670000000000127e-02 2.072919999999999971e-02 2.103789999999999827e-02 2.137659999999999907e-02 2.176290000000000169e-02 2.218890000000000098e-02 2.265450000000000103e-02 2.316270000000000134e-02 2.369150000000000075e-02 2.424240000000000075e-02 2.478850000000000151e-02 2.530220000000000038e-02 2.576360000000000108e-02 2.612719999999999973e-02 2.636329999999999923e-02 2.643409999999999857e-02 2.630920000000000133e-02 2.596189999999999956e-02 2.538100000000000078e-02 2.456339999999999912e-02 2.351910000000000112e-02 2.227010000000000101e-02 2.085110000000000088e-02 1.929890000000000078e-02 1.765689999999999968e-02 1.597080000000000027e-02 1.428169999999999960e-02 1.262800000000000034e-02 1.104450000000000050e-02 9.556280000000000330e-03 8.184920000000000043e-03 6.942509999999999827e-03 5.836150000000000018e-03 4.866389999999999952e-03 4.028359999999999927e-03 3.314489999999999797e-03 2.713349999999999790e-03 2.213070000000000141e-03 1.800429999999999999e-03 1.462820000000000092e-03 1.188489999999999946e-03 9.664889999999999549e-04 7.874709999999999826e-04 6.433660000000000333e-04 5.272579999999999585e-04 4.334580000000000095e-04 3.574210000000000191e-04 2.953070000000000239e-04 2.442009999999999884e-04 2.016680000000000078e-04 1.657969999999999984e-04 1.351129999999999920e-04 1.083769999999999959e-04 8.460360000000000428e-05 6.299069999999999984e-05 